+ 1 0 2 tcp 1000 ------- 1 0.0 3.0 0 0 0 0x0 0 0
- 1 0 2 tcp 1000 ------- 1 0.0 3.0 0 0 0 0x0 0 0
r 1.001 0 2 tcp 1000 ------- 1 0.0 3.0 0 0 0 0x0 0 0
+ 1.001 2 3 tcp 1000 ------- 1 0.0 3.0 0 0 0 0x0 0 0
- 1.001 2 3 tcp 1000 ------- 1 0.0 3.0 0 0 0 0x0 0 0
r 1.021 2 3 tcp 1000 ------- 1 0.0 3.0 0 0 0 0x0 0 0
+ 1.221 3 2 ack 40 ------- 1 3.0 0.0 0 1 0 0x0 0 0
- 1.221 3 2 ack 40 ------- 1 3.0 0.0 0 1 0 0x0 0 0
r 1.2314 3 2 ack 40 ------- 1 3.0 0.0 0 1 0 0x0 0 0
+ 1.2314 2 0 ack 40 ------- 1 3.0 0.0 0 1 0 0x0 0 0
- 1.2314 2 0 ack 40 ------- 1 3.0 0.0 0 1 0 0x0 0 0
r 1.23144 2 0 ack 40 ------- 1 3.0 0.0 0 1 0 0x0 0 0
+ 1.23144 0 2 tcp 1000 ------- 1 0.0 3.0 1 2 0 0x0 0 0
- 1.23144 0 2 tcp 1000 ------- 1 0.0 3.0 1 2 0 0x0 0 0
+ 1.23144 0 2 tcp 1000 ------- 1 0.0 3.0 2 3 0 0x0 0 0
r 1.23244 0 2 tcp 1000 ------- 1 0.0 3.0 1 2 0 0x0 0 0
+ 1.23244 2 3 tcp 1000 ------- 1 0.0 3.0 1 2 0 0x0 0 0
- 1.23244 2 3 tcp 1000 ------- 1 0.0 3.0 1 2 0 0x0 0 0
- 1.23244 0 2 tcp 1000 ------- 1 0.0 3.0 2 3 0 0x0 0 0
r 1.23344 0 2 tcp 1000 ------- 1 0.0 3.0 2 3 0 0x0 0 0
+ 1.23344 2 3 tcp 1000 ------- 1 0.0 3.0 2 3 0 0x0 0 0
- 1.24244 2 3 tcp 1000 ------- 1 0.0 3.0 2 3 0 0x0 0 0
r 1.25244 2 3 tcp 1000 ------- 1 0.0 3.0 1 2 0 0x0 0 0
r 1.26244 2 3 tcp 1000 ------- 1 0.0 3.0 2 3 0 0x0 0 0
+ 1.26244 3 2 ack 40 ------- 1 3.0 0.0 2 4 0 0x0 0 0
- 1.26244 3 2 ack 40 ------- 1 3.0 0.0 2 4 0 0x0 0 0
r 1.27284 3 2 ack 40 ------- 1 3.0 0.0 2 4 0 0x0 0 0
+ 1.27284 2 0 ack 40 ------- 1 3.0 0.0 2 4 0 0x0 0 0
- 1.27284 2 0 ack 40 ------- 1 3.0 0.0 2 4 0 0x0 0 0
r 1.27288 2 0 ack 40 ------- 1 3.0 0.0 2 4 0 0x0 0 0
+ 1.27288 0 2 tcp 1000 ------- 1 0.0 3.0 3 5 0 0x0 0 0
- 1.27288 0 2 tcp 1000 ------- 1 0.0 3.0 3 5 0 0x0 0 0
+ 1.27288 0 2 tcp 1000 ------- 1 0.0 3.0 4 6 0 0x0 0 0
+ 1.27288 0 2 tcp 1000 ------- 1 0.0 3.0 5 7 0 0x0 0 0
r 1.27388 0 2 tcp 1000 ------- 1 0.0 3.0 3 5 0 0x0 0 0
d 1.27388 2 3 tcp 1000 ------- 1 0.0 3.0 3 5 0 0x0 0 0
- 1.27388 0 2 tcp 1000 ------- 1 0.0 3.0 4 6 0 0x0 0 0
r 1.27488 0 2 tcp 1000 ------- 1 0.0 3.0 4 6 0 0x0 0 0
d 1.27488 2 3 tcp 1000 ------- 1 0.0 3.0 4 6 0 0x0 0 0
- 1.27488 0 2 tcp 1000 ------- 1 0.0 3.0 5 7 0 0x0 0 0
r 1.27588 0 2 tcp 1000 ------- 1 0.0 3.0 5 7 0 0x0 0 0
+ 1.27588 2 3 tcp 1000 ------- 1 0.0 3.0 5 7 0 0x0 0 0
- 1.27588 2 3 tcp 1000 ------- 1 0.0 3.0 5 7 0 0x0 0 0
r 1.29588 2 3 tcp 1000 ------- 1 0.0 3.0 5 7 0 0x0 0 0
+ 1.29588 3 2 ack 48 ------- 1 3.0 0.0 2 8 0 0x0 0 1
- 1.29588 3 2 ack 48 ------- 1 3.0 0.0 2 8 0 0x0 0 1
r 1.30636 3 2 ack 48 ------- 1 3.0 0.0 2 8 0 0x0 0 1
+ 1.30636 2 0 ack 48 ------- 1 3.0 0.0 2 8 0 0x0 0 1
- 1.30636 2 0 ack 48 ------- 1 3.0 0.0 2 8 0 0x0 0 1
r 1.306408 2 0 ack 48 ------- 1 3.0 0.0 2 8 0 0x0 0 1
+ 1.77288 0 2 tcp 1000 ---A--- 1 0.0 3.0 3 9 0 0x0 0 0
- 1.77288 0 2 tcp 1000 ---A--- 1 0.0 3.0 3 9 0 0x0 0 0
r 1.77388 0 2 tcp 1000 ---A--- 1 0.0 3.0 3 9 0 0x0 0 0
+ 1.77388 2 3 tcp 1000 ---A--- 1 0.0 3.0 3 9 0 0x0 0 0
- 1.77388 2 3 tcp 1000 ---A--- 1 0.0 3.0 3 9 0 0x0 0 0
r 1.79388 2 3 tcp 1000 ---A--- 1 0.0 3.0 3 9 0 0x0 0 0
+ 1.99388 3 2 ack 48 ------- 1 3.0 0.0 3 10 0 0x0 0 1
- 1.99388 3 2 ack 48 ------- 1 3.0 0.0 3 10 0 0x0 0 1
r 2.00436 3 2 ack 48 ------- 1 3.0 0.0 3 10 0 0x0 0 1
+ 2.00436 2 0 ack 48 ------- 1 3.0 0.0 3 10 0 0x0 0 1
- 2.00436 2 0 ack 48 ------- 1 3.0 0.0 3 10 0 0x0 0 1
r 2.004408 2 0 ack 48 ------- 1 3.0 0.0 3 10 0 0x0 0 1
+ 2.004408 0 2 tcp 1000 ------- 1 0.0 3.0 4 11 0 0x0 0 0
- 2.004408 0 2 tcp 1000 ------- 1 0.0 3.0 4 11 0 0x0 0 0
+ 2.004408 0 2 tcp 1000 ------- 1 0.0 3.0 5 12 0 0x0 0 0
r 2.005408 0 2 tcp 1000 ------- 1 0.0 3.0 4 11 0 0x0 0 0
+ 2.005408 2 3 tcp 1000 ------- 1 0.0 3.0 4 11 0 0x0 0 0
- 2.005408 2 3 tcp 1000 ------- 1 0.0 3.0 4 11 0 0x0 0 0
- 2.005408 0 2 tcp 1000 ------- 1 0.0 3.0 5 12 0 0x0 0 0
r 2.006408 0 2 tcp 1000 ------- 1 0.0 3.0 5 12 0 0x0 0 0
+ 2.006408 2 3 tcp 1000 ------- 1 0.0 3.0 5 12 0 0x0 0 0
- 2.015408 2 3 tcp 1000 ------- 1 0.0 3.0 5 12 0 0x0 0 0
r 2.025408 2 3 tcp 1000 ------- 1 0.0 3.0 4 11 0 0x0 0 0
+ 2.025408 3 2 ack 40 ------- 1 3.0 0.0 5 13 0 0x0 0 0
- 2.025408 3 2 ack 40 ------- 1 3.0 0.0 5 13 0 0x0 0 0
r 2.035408 2 3 tcp 1000 ------- 1 0.0 3.0 5 12 0 0x0 0 0
r 2.035808 3 2 ack 40 ------- 1 3.0 0.0 5 13 0 0x0 0 0
+ 2.035808 2 0 ack 40 ------- 1 3.0 0.0 5 13 0 0x0 0 0
- 2.035808 2 0 ack 40 ------- 1 3.0 0.0 5 13 0 0x0 0 0
r 2.035848 2 0 ack 40 ------- 1 3.0 0.0 5 13 0 0x0 0 0
+ 2.035848 0 2 tcp 1000 ------- 1 0.0 3.0 6 14 0 0x0 0 0
- 2.035848 0 2 tcp 1000 ------- 1 0.0 3.0 6 14 0 0x0 0 0
+ 2.035848 0 2 tcp 1000 ------- 1 0.0 3.0 7 15 0 0x0 0 0
r 2.036848 0 2 tcp 1000 ------- 1 0.0 3.0 6 14 0 0x0 0 0
+ 2.036848 2 3 tcp 1000 ------- 1 0.0 3.0 6 14 0 0x0 0 0
- 2.036848 2 3 tcp 1000 ------- 1 0.0 3.0 6 14 0 0x0 0 0
- 2.036848 0 2 tcp 1000 ------- 1 0.0 3.0 7 15 0 0x0 0 0
r 2.037848 0 2 tcp 1000 ------- 1 0.0 3.0 7 15 0 0x0 0 0
+ 2.037848 2 3 tcp 1000 ------- 1 0.0 3.0 7 15 0 0x0 0 0
- 2.046848 2 3 tcp 1000 ------- 1 0.0 3.0 7 15 0 0x0 0 0
r 2.056848 2 3 tcp 1000 ------- 1 0.0 3.0 6 14 0 0x0 0 0
+ 2.056848 3 2 ack 40 ------- 1 3.0 0.0 6 16 0 0x0 0 0
- 2.056848 3 2 ack 40 ------- 1 3.0 0.0 6 16 0 0x0 0 0
r 2.066848 2 3 tcp 1000 ------- 1 0.0 3.0 7 15 0 0x0 0 0
r 2.067248 3 2 ack 40 ------- 1 3.0 0.0 6 16 0 0x0 0 0
+ 2.067248 2 0 ack 40 ------- 1 3.0 0.0 6 16 0 0x0 0 0
- 2.067248 2 0 ack 40 ------- 1 3.0 0.0 6 16 0 0x0 0 0
r 2.067288 2 0 ack 40 ------- 1 3.0 0.0 6 16 0 0x0 0 0
+ 2.067288 0 2 tcp 1000 ------- 1 0.0 3.0 8 17 0 0x0 0 0
- 2.067288 0 2 tcp 1000 ------- 1 0.0 3.0 8 17 0 0x0 0 0
r 2.068288 0 2 tcp 1000 ------- 1 0.0 3.0 8 17 0 0x0 0 0
+ 2.068288 2 3 tcp 1000 ------- 1 0.0 3.0 8 17 0 0x0 0 0
- 2.068288 2 3 tcp 1000 ------- 1 0.0 3.0 8 17 0 0x0 0 0
r 2.088288 2 3 tcp 1000 ------- 1 0.0 3.0 8 17 0 0x0 0 0
+ 2.088288 3 2 ack 40 ------- 1 3.0 0.0 8 18 0 0x0 0 0
- 2.088288 3 2 ack 40 ------- 1 3.0 0.0 8 18 0 0x0 0 0
r 2.098688 3 2 ack 40 ------- 1 3.0 0.0 8 18 0 0x0 0 0
+ 2.098688 2 0 ack 40 ------- 1 3.0 0.0 8 18 0 0x0 0 0
- 2.098688 2 0 ack 40 ------- 1 3.0 0.0 8 18 0 0x0 0 0
r 2.098728 2 0 ack 40 ------- 1 3.0 0.0 8 18 0 0x0 0 0
+ 2.098728 0 2 tcp 1000 ------- 1 0.0 3.0 9 19 0 0x0 0 0
- 2.098728 0 2 tcp 1000 ------- 1 0.0 3.0 9 19 0 0x0 0 0
r 2.099728 0 2 tcp 1000 ------- 1 0.0 3.0 9 19 0 0x0 0 0
+ 2.099728 2 3 tcp 1000 ------- 1 0.0 3.0 9 19 0 0x0 0 0
- 2.099728 2 3 tcp 1000 ------- 1 0.0 3.0 9 19 0 0x0 0 0
r 2.119728 2 3 tcp 1000 ------- 1 0.0 3.0 9 19 0 0x0 0 0
+ 2.319728 3 2 ack 40 ------- 1 3.0 0.0 9 20 0 0x0 0 0
- 2.319728 3 2 ack 40 ------- 1 3.0 0.0 9 20 0 0x0 0 0
r 2.330128 3 2 ack 40 ------- 1 3.0 0.0 9 20 0 0x0 0 0
+ 2.330128 2 0 ack 40 ------- 1 3.0 0.0 9 20 0 0x0 0 0
- 2.330128 2 0 ack 40 ------- 1 3.0 0.0 9 20 0 0x0 0 0
r 2.330168 2 0 ack 40 ------- 1 3.0 0.0 9 20 0 0x0 0 0
