+ 10.669442 2 1 tcp 1000 ------- 0 3.0 0.0 0 0
- 10.669442 2 1 tcp 1000 ------- 0 3.0 0.0 0 0
r 10.779442 2 1 tcp 1000 ------- 0 3.0 0.0 0 0
+ 10.982674 2 3 ack 40 ------- 0 0.0 3.0 0 1
- 10.982674 2 3 ack 40 ------- 0 0.0 3.0 0 1
r 10.983706 2 3 ack 40 ------- 0 0.0 3.0 0 1
+ 10.985506 2 1 tcp 1000 ------- 0 3.0 0.0 1 2
- 10.985506 2 1 tcp 1000 ------- 0 3.0 0.0 1 2
r 11.095506 2 1 tcp 1000 ------- 0 3.0 0.0 1 2
+ 11.298738 2 3 ack 40 ------- 0 0.0 3.0 1 3
- 11.298738 2 3 ack 40 ------- 0 0.0 3.0 1 3
r 11.29977 2 3 ack 40 ------- 0 0.0 3.0 1 3
+ 11.30157 2 1 tcp 1000 ------- 0 3.0 0.0 2 4
- 11.30157 2 1 tcp 1000 ------- 0 3.0 0.0 2 4
+ 11.30237 2 1 tcp 1000 ------- 0 3.0 0.0 3 5
- 11.31157 2 1 tcp 1000 ------- 0 3.0 0.0 3 5
r 11.41157 2 1 tcp 1000 ------- 0 3.0 0.0 2 4
r 11.42157 2 1 tcp 1000 ------- 0 3.0 0.0 3 5
+ 11.524802 2 3 ack 40 ------- 0 0.0 3.0 3 6
- 11.524802 2 3 ack 40 ------- 0 0.0 3.0 3 6
r 11.525834 2 3 ack 40 ------- 0 0.0 3.0 3 6
+ 11.527634 2 1 tcp 1000 ------- 0 3.0 0.0 4 7
- 11.527634 2 1 tcp 1000 ------- 0 3.0 0.0 4 7
+ 11.528434 2 1 tcp 1000 ------- 0 3.0 0.0 5 8
- 11.537634 2 1 tcp 1000 ------- 0 3.0 0.0 5 8
r 11.637634 2 1 tcp 1000 ------- 0 3.0 0.0 4 7
r 11.647634 2 1 tcp 1000 ------- 0 3.0 0.0 5 8
+ 11.750866 2 3 ack 40 ------- 0 0.0 3.0 5 9
- 11.750866 2 3 ack 40 ------- 0 0.0 3.0 5 9
r 11.751898 2 3 ack 40 ------- 0 0.0 3.0 5 9
+ 11.753698 2 1 tcp 1000 ------- 0 3.0 0.0 6 10
- 11.753698 2 1 tcp 1000 ------- 0 3.0 0.0 6 10
+ 11.754498 2 1 tcp 1000 ------- 0 3.0 0.0 7 11
+ 11.755298 2 1 tcp 1000 ------- 0 3.0 0.0 8 12
- 11.763698 2 1 tcp 1000 ------- 0 3.0 0.0 7 11
- 11.773698 2 1 tcp 1000 ------- 0 3.0 0.0 8 12
r 11.863698 2 1 tcp 1000 ------- 0 3.0 0.0 6 10
r 11.873698 2 1 tcp 1000 ------- 0 3.0 0.0 7 11
r 11.883698 2 1 tcp 1000 ------- 0 3.0 0.0 8 12
+ 11.97693 2 3 ack 40 ------- 0 0.0 3.0 7 13
- 11.97693 2 3 ack 40 ------- 0 0.0 3.0 7 13
r 11.977962 2 3 ack 40 ------- 0 0.0 3.0 7 13
+ 11.979762 2 1 tcp 1000 ------- 0 3.0 0.0 9 14
- 11.979762 2 1 tcp 1000 ------- 0 3.0 0.0 9 14
+ 12.08693 2 3 ack 40 ------- 0 0.0 3.0 8 15
- 12.08693 2 3 ack 40 ------- 0 0.0 3.0 8 15
r 12.087962 2 3 ack 40 ------- 0 0.0 3.0 8 15
r 12.089762 2 1 tcp 1000 ------- 0 3.0 0.0 9 14
+ 12.292994 2 3 ack 40 ------- 0 0.0 3.0 9 16
- 12.292994 2 3 ack 40 ------- 0 0.0 3.0 9 16
r 12.294026 2 3 ack 40 ------- 0 0.0 3.0 9 16
+ 29.044414 2 1 tcp 1000 ------- 0 3.0 0.0 10 17
- 29.044414 2 1 tcp 1000 ------- 0 3.0 0.0 10 17
+ 29.149769 2 1 tcp 1000 ------- 0 3.0 0.0 11 18
- 29.149769 2 1 tcp 1000 ------- 0 3.0 0.0 11 18
r 29.154414 2 1 tcp 1000 ------- 0 3.0 0.0 10 17
+ 29.255123 2 1 tcp 1000 ------- 0 3.0 0.0 12 19
- 29.255123 2 1 tcp 1000 ------- 0 3.0 0.0 12 19
r 29.259769 2 1 tcp 1000 ------- 0 3.0 0.0 11 18
+ 29.357646 2 3 ack 40 ------- 0 0.0 3.0 10 20
- 29.357646 2 3 ack 40 ------- 0 0.0 3.0 10 20
r 29.358678 2 3 ack 40 ------- 0 0.0 3.0 10 20
+ 29.360478 2 1 tcp 1000 ------- 0 3.0 0.0 13 21
- 29.360478 2 1 tcp 1000 ------- 0 3.0 0.0 13 21
r 29.365123 2 1 tcp 1000 ------- 0 3.0 0.0 12 19
+ 29.463001 2 3 ack 40 ------- 0 0.0 3.0 11 22
- 29.463001 2 3 ack 40 ------- 0 0.0 3.0 11 22
r 29.464033 2 3 ack 40 ------- 0 0.0 3.0 11 22
+ 29.465833 2 1 tcp 1000 ------- 0 3.0 0.0 14 23
- 29.465833 2 1 tcp 1000 ------- 0 3.0 0.0 14 23
r 29.470478 2 1 tcp 1000 ------- 0 3.0 0.0 13 21
+ 29.568355 2 3 ack 40 ------- 0 0.0 3.0 12 24
- 29.568355 2 3 ack 40 ------- 0 0.0 3.0 12 24
r 29.569387 2 3 ack 40 ------- 0 0.0 3.0 12 24
+ 29.571187 2 1 tcp 1000 ------- 0 3.0 0.0 15 25
- 29.571187 2 1 tcp 1000 ------- 0 3.0 0.0 15 25
r 29.575833 2 1 tcp 1000 ------- 0 3.0 0.0 14 23
+ 29.67371 2 3 ack 40 ------- 0 0.0 3.0 13 26
- 29.67371 2 3 ack 40 ------- 0 0.0 3.0 13 26
r 29.674742 2 3 ack 40 ------- 0 0.0 3.0 13 26
+ 29.676542 2 1 tcp 1000 ------- 0 3.0 0.0 16 27
- 29.676542 2 1 tcp 1000 ------- 0 3.0 0.0 16 27
+ 29.677342 2 1 tcp 1000 ------- 0 3.0 0.0 17 28
r 29.681187 2 1 tcp 1000 ------- 0 3.0 0.0 15 25
- 29.686542 2 1 tcp 1000 ------- 0 3.0 0.0 17 28
+ 29.779065 2 3 ack 40 ------- 0 0.0 3.0 14 29
- 29.779065 2 3 ack 40 ------- 0 0.0 3.0 14 29
r 29.780097 2 3 ack 40 ------- 0 0.0 3.0 14 29
+ 29.781897 2 1 tcp 1000 ------- 0 3.0 0.0 18 30
- 29.781897 2 1 tcp 1000 ------- 0 3.0 0.0 18 30
+ 29.782697 2 1 tcp 1000 ------- 0 3.0 0.0 19 31
r 29.786542 2 1 tcp 1000 ------- 0 3.0 0.0 16 27
- 29.791897 2 1 tcp 1000 ------- 0 3.0 0.0 19 31
r 29.796542 2 1 tcp 1000 ------- 0 3.0 0.0 17 28
+ 29.884419 2 3 ack 40 ------- 0 0.0 3.0 15 32
- 29.884419 2 3 ack 40 ------- 0 0.0 3.0 15 32
r 29.885451 2 3 ack 40 ------- 0 0.0 3.0 15 32
r 29.891897 2 1 tcp 1000 ------- 0 3.0 0.0 18 30
+ 29.899774 2 3 ack 40 ------- 0 0.0 3.0 17 33
- 29.899774 2 3 ack 40 ------- 0 0.0 3.0 17 33
r 29.900806 2 3 ack 40 ------- 0 0.0 3.0 17 33
r 29.901897 2 1 tcp 1000 ------- 0 3.0 0.0 19 31
+ 30.005129 2 3 ack 40 ------- 0 0.0 3.0 19 34
- 30.005129 2 3 ack 40 ------- 0 0.0 3.0 19 34
r 30.006161 2 3 ack 40 ------- 0 0.0 3.0 19 34
+ 49.266168 2 1 tcp 1000 ------- 0 3.0 0.0 20 35
- 49.266168 2 1 tcp 1000 ------- 0 3.0 0.0 20 35
+ 49.311381 2 1 tcp 1000 ------- 0 3.0 0.0 21 36
- 49.311381 2 1 tcp 1000 ------- 0 3.0 0.0 21 36
+ 49.356594 2 1 tcp 1000 ------- 0 3.0 0.0 22 37
- 49.356594 2 1 tcp 1000 ------- 0 3.0 0.0 22 37
r 49.376168 2 1 tcp 1000 ------- 0 3.0 0.0 20 35
+ 49.401806 2 1 tcp 1000 ------- 0 3.0 0.0 23 38
- 49.401806 2 1 tcp 1000 ------- 0 3.0 0.0 23 38
r 49.421381 2 1 tcp 1000 ------- 0 3.0 0.0 21 36
+ 49.447019 2 1 tcp 1000 ------- 0 3.0 0.0 24 40
- 49.447019 2 1 tcp 1000 ------- 0 3.0 0.0 24 40
r 49.466594 2 1 tcp 1000 ------- 0 3.0 0.0 22 37
r 49.511806 2 1 tcp 1000 ------- 0 3.0 0.0 23 38
+ 49.524613 2 3 ack 40 ------- 0 0.0 3.0 21 39
- 49.524613 2 3 ack 40 ------- 0 0.0 3.0 21 39
r 49.525645 2 3 ack 40 ------- 0 0.0 3.0 21 39
+ 49.527445 2 1 tcp 1000 ------- 0 3.0 0.0 25 42
- 49.527445 2 1 tcp 1000 ------- 0 3.0 0.0 25 42
+ 49.528245 2 1 tcp 1000 ------- 0 3.0 0.0 26 43
+ 49.529045 2 1 tcp 1000 ------- 0 3.0 0.0 27 44
- 49.537445 2 1 tcp 1000 ------- 0 3.0 0.0 26 43
- 49.547445 2 1 tcp 1000 ------- 0 3.0 0.0 27 44
r 49.557019 2 1 tcp 1000 ------- 0 3.0 0.0 24 40
+ 49.615038 2 3 ack 40 ------- 0 0.0 3.0 23 41
- 49.615038 2 3 ack 40 ------- 0 0.0 3.0 23 41
r 49.61607 2 3 ack 40 ------- 0 0.0 3.0 23 41
+ 49.61787 2 1 tcp 1000 ------- 0 3.0 0.0 28 45
- 49.61787 2 1 tcp 1000 ------- 0 3.0 0.0 28 45
+ 49.61867 2 1 tcp 1000 ------- 0 3.0 0.0 29 46
- 49.62787 2 1 tcp 1000 ------- 0 3.0 0.0 29 46
r 49.637445 2 1 tcp 1000 ------- 0 3.0 0.0 25 42
r 49.647445 2 1 tcp 1000 ------- 0 3.0 0.0 26 43
r 49.657445 2 1 tcp 1000 ------- 0 3.0 0.0 27 44
r 49.72787 2 1 tcp 1000 ------- 0 3.0 0.0 28 45
r 49.73787 2 1 tcp 1000 ------- 0 3.0 0.0 29 46
+ 49.740677 2 3 ack 40 ------- 0 0.0 3.0 25 47
- 49.740677 2 3 ack 40 ------- 0 0.0 3.0 25 47
r 49.741709 2 3 ack 40 ------- 0 0.0 3.0 25 47
+ 49.760677 2 3 ack 40 ------- 0 0.0 3.0 27 48
- 49.760677 2 3 ack 40 ------- 0 0.0 3.0 27 48
r 49.761709 2 3 ack 40 ------- 0 0.0 3.0 27 48
+ 49.841102 2 3 ack 40 ------- 0 0.0 3.0 29 49
- 49.841102 2 3 ack 40 ------- 0 0.0 3.0 29 49
r 49.842134 2 3 ack 40 ------- 0 0.0 3.0 29 49
