n -t * -s 0  -x 200 -y 100 -Z 0 -z 20  -v circle -c black
n -t * -s 1  -x 1000 -y 100 -Z 0 -z 20  -v circle -c black
n -t * -s 2  -x 400 -y 100 -Z 0 -z 20  -v circle -c black
n -t * -s 3  -x 600 -y 100 -Z 0 -z 20  -v circle -c black
n -t * -s 4  -x 800 -y 100 -Z 0 -z 20  -v circle -c black
V -t * -v 1.0a5 -a 0
W -t * -x 900 -y 900
A -t * -n 1 -p 0 -o 0xffffffff -c 31 -a 1
A -t * -h 1 -m 2147483647 -s 0
+ -t 100.000000000 -s 0 -d -1 -p tcp -e 40 -c 2 -a 0 -i 0 -k AGT 
- -t 100.000000000 -s 0 -d -1 -p tcp -e 40 -c 2 -a 0 -i 0 -k AGT
h -t 100.000000000 -s 0 -d -1 -p tcp -e 40 -c 2 -a 0 -i 0 -k AGT
+ -t 100.001109741 -s 0 -d -1 -p DSR -e 32 -c 2 -a 0 -i 1 -k RTR 
- -t 100.001109741 -s 0 -d -1 -p DSR -e 32 -c 2 -a 0 -i 1 -k RTR
h -t 100.001109741 -s 0 -d -1 -p DSR -e 32 -c 2 -a 0 -i 1 -k RTR
+ -t 100.062984433 -s 0 -d -1 -p DSR -e 32 -c 2 -a 0 -i 3 -k RTR 
- -t 100.062984433 -s 0 -d -1 -p DSR -e 32 -c 2 -a 0 -i 3 -k RTR
h -t 100.062984433 -s 0 -d -1 -p DSR -e 32 -c 2 -a 0 -i 3 -k RTR
+ -t 100.065201785 -s 2 -d -1 -p DSR -e 48 -c 2 -a 0 -i 3 -k RTR 
- -t 100.065201785 -s 2 -d -1 -p DSR -e 48 -c 2 -a 0 -i 3 -k RTR
h -t 100.065201785 -s 2 -d -1 -p DSR -e 48 -c 2 -a 0 -i 3 -k RTR
+ -t 100.071952658 -s 3 -d -1 -p DSR -e 68 -c 2 -a 0 -i 3 -k RTR 
- -t 100.071952658 -s 3 -d -1 -p DSR -e 68 -c 2 -a 0 -i 3 -k RTR
h -t 100.071952658 -s 3 -d -1 -p DSR -e 68 -c 2 -a 0 -i 3 -k RTR
+ -t 100.073242632 -s 4 -d -1 -p DSR -e 92 -c 2 -a 0 -i 3 -k RTR 
- -t 100.073242632 -s 4 -d -1 -p DSR -e 92 -c 2 -a 0 -i 3 -k RTR
h -t 100.073242632 -s 4 -d -1 -p DSR -e 92 -c 2 -a 0 -i 3 -k RTR
+ -t 100.078859311 -s 1 -d 4 -p DSR -e 68 -c 2 -a 0 -i 4 -k RTR 
- -t 100.078859311 -s 1 -d 4 -p DSR -e 68 -c 2 -a 0 -i 4 -k RTR
h -t 100.078859311 -s 1 -d 4 -p DSR -e 68 -c 2 -a 0 -i 4 -k RTR
+ -t 100.083974977 -s 4 -d 3 -p DSR -e 68 -c 2 -a 0 -i 4 -k RTR 
- -t 100.083974977 -s 4 -d 3 -p DSR -e 68 -c 2 -a 0 -i 4 -k RTR
h -t 100.083974977 -s 4 -d 3 -p DSR -e 68 -c 2 -a 0 -i 4 -k RTR
+ -t 100.089654644 -s 3 -d 2 -p DSR -e 68 -c 2 -a 0 -i 4 -k RTR 
- -t 100.089654644 -s 3 -d 2 -p DSR -e 68 -c 2 -a 0 -i 4 -k RTR
h -t 100.089654644 -s 3 -d 2 -p DSR -e 68 -c 2 -a 0 -i 4 -k RTR
+ -t 100.095214311 -s 2 -d 0 -p DSR -e 68 -c 2 -a 0 -i 4 -k RTR 
- -t 100.095214311 -s 2 -d 0 -p DSR -e 68 -c 2 -a 0 -i 4 -k RTR
h -t 100.095214311 -s 2 -d 0 -p DSR -e 68 -c 2 -a 0 -i 4 -k RTR
+ -t 100.100193977 -s 0 -d 2 -p tcp -e 88 -c 2 -a 0 -i 0 -k RTR 
- -t 100.100193977 -s 0 -d 2 -p tcp -e 88 -c 2 -a 0 -i 0 -k RTR
h -t 100.100193977 -s 0 -d 2 -p tcp -e 88 -c 2 -a 0 -i 0 -k RTR
+ -t 100.102615977 -s 2 -d 3 -p tcp -e 88 -c 2 -a 0 -i 0 -k RTR 
- -t 100.102615977 -s 2 -d 3 -p tcp -e 88 -c 2 -a 0 -i 0 -k RTR
h -t 100.102615977 -s 2 -d 3 -p tcp -e 88 -c 2 -a 0 -i 0 -k RTR
+ -t 100.104857977 -s 3 -d 4 -p tcp -e 88 -c 2 -a 0 -i 0 -k RTR 
- -t 100.104857977 -s 3 -d 4 -p tcp -e 88 -c 2 -a 0 -i 0 -k RTR
h -t 100.104857977 -s 3 -d 4 -p tcp -e 88 -c 2 -a 0 -i 0 -k RTR
+ -t 100.107619977 -s 4 -d 1 -p tcp -e 88 -c 2 -a 0 -i 0 -k RTR 
- -t 100.107619977 -s 4 -d 1 -p tcp -e 88 -c 2 -a 0 -i 0 -k RTR
h -t 100.107619977 -s 4 -d 1 -p tcp -e 88 -c 2 -a 0 -i 0 -k RTR
r -t 100.110341977 -s 1 -d 1 -p tcp -e 40 -c 2 -a 0 -i 0 -k AGT
+ -t 100.110341977 -s 1 -d -1 -p ack -e 40 -c 2 -a 0 -i 5 -k AGT 
- -t 100.110341977 -s 1 -d -1 -p ack -e 40 -c 2 -a 0 -i 5 -k AGT
h -t 100.110341977 -s 1 -d -1 -p ack -e 40 -c 2 -a 0 -i 5 -k AGT
+ -t 100.110341977 -s 1 -d 4 -p ack -e 88 -c 2 -a 0 -i 5 -k RTR 
- -t 100.110341977 -s 1 -d 4 -p ack -e 88 -c 2 -a 0 -i 5 -k RTR
h -t 100.110341977 -s 1 -d 4 -p ack -e 88 -c 2 -a 0 -i 5 -k RTR
+ -t 100.112803977 -s 4 -d 3 -p ack -e 88 -c 2 -a 0 -i 5 -k RTR 
- -t 100.112803977 -s 4 -d 3 -p ack -e 88 -c 2 -a 0 -i 5 -k RTR
h -t 100.112803977 -s 4 -d 3 -p ack -e 88 -c 2 -a 0 -i 5 -k RTR
+ -t 100.115085977 -s 3 -d 2 -p ack -e 88 -c 2 -a 0 -i 5 -k RTR 
- -t 100.115085977 -s 3 -d 2 -p ack -e 88 -c 2 -a 0 -i 5 -k RTR
h -t 100.115085977 -s 3 -d 2 -p ack -e 88 -c 2 -a 0 -i 5 -k RTR
+ -t 100.117247977 -s 2 -d 0 -p ack -e 88 -c 2 -a 0 -i 5 -k RTR 
- -t 100.117247977 -s 2 -d 0 -p ack -e 88 -c 2 -a 0 -i 5 -k RTR
h -t 100.117247977 -s 2 -d 0 -p ack -e 88 -c 2 -a 0 -i 5 -k RTR
r -t 100.119989977 -s 0 -d 0 -p ack -e 40 -c 2 -a 0 -i 5 -k AGT
+ -t 100.119989977 -s 0 -d -1 -p tcp -e 552 -c 2 -a 0 -i 6 -k AGT 
- -t 100.119989977 -s 0 -d -1 -p tcp -e 552 -c 2 -a 0 -i 6 -k AGT
h -t 100.119989977 -s 0 -d -1 -p tcp -e 552 -c 2 -a 0 -i 6 -k AGT
+ -t 100.119989977 -s 0 -d -1 -p tcp -e 552 -c 2 -a 0 -i 7 -k AGT 
- -t 100.119989977 -s 0 -d -1 -p tcp -e 552 -c 2 -a 0 -i 7 -k AGT
h -t 100.119989977 -s 0 -d -1 -p tcp -e 552 -c 2 -a 0 -i 7 -k AGT
+ -t 100.119989977 -s 0 -d 2 -p tcp -e 600 -c 2 -a 0 -i 6 -k RTR 
- -t 100.119989977 -s 0 -d 2 -p tcp -e 600 -c 2 -a 0 -i 6 -k RTR
h -t 100.119989977 -s 0 -d 2 -p tcp -e 600 -c 2 -a 0 -i 6 -k RTR
+ -t 100.119989977 -s 0 -d 2 -p tcp -e 600 -c 2 -a 0 -i 7 -k RTR 
- -t 100.119989977 -s 0 -d 2 -p tcp -e 600 -c 2 -a 0 -i 7 -k RTR
h -t 100.119989977 -s 0 -d 2 -p tcp -e 600 -c 2 -a 0 -i 7 -k RTR
+ -t 100.126687977 -s 2 -d 3 -p tcp -e 600 -c 2 -a 0 -i 6 -k RTR 
- -t 100.126687977 -s 2 -d 3 -p tcp -e 600 -c 2 -a 0 -i 6 -k RTR
h -t 100.126687977 -s 2 -d 3 -p tcp -e 600 -c 2 -a 0 -i 6 -k RTR
+ -t 100.133045977 -s 3 -d 4 -p tcp -e 600 -c 2 -a 0 -i 6 -k RTR 
- -t 100.133045977 -s 3 -d 4 -p tcp -e 600 -c 2 -a 0 -i 6 -k RTR
h -t 100.133045977 -s 3 -d 4 -p tcp -e 600 -c 2 -a 0 -i 6 -k RTR
+ -t 100.139783977 -s 4 -d 1 -p tcp -e 600 -c 2 -a 0 -i 6 -k RTR 
- -t 100.139783977 -s 4 -d 1 -p tcp -e 600 -c 2 -a 0 -i 6 -k RTR
h -t 100.139783977 -s 4 -d 1 -p tcp -e 600 -c 2 -a 0 -i 6 -k RTR
r -t 100.146341977 -s 1 -d 1 -p tcp -e 552 -c 2 -a 0 -i 6 -k AGT
+ -t 100.146341977 -s 1 -d -1 -p ack -e 40 -c 2 -a 0 -i 8 -k AGT 
- -t 100.146341977 -s 1 -d -1 -p ack -e 40 -c 2 -a 0 -i 8 -k AGT
h -t 100.146341977 -s 1 -d -1 -p ack -e 40 -c 2 -a 0 -i 8 -k AGT
+ -t 100.146341977 -s 1 -d 4 -p ack -e 88 -c 2 -a 0 -i 8 -k RTR 
- -t 100.146341977 -s 1 -d 4 -p ack -e 88 -c 2 -a 0 -i 8 -k RTR
h -t 100.146341977 -s 1 -d 4 -p ack -e 88 -c 2 -a 0 -i 8 -k RTR
+ -t 100.148963977 -s 4 -d 3 -p ack -e 88 -c 2 -a 0 -i 8 -k RTR 
- -t 100.148963977 -s 4 -d 3 -p ack -e 88 -c 2 -a 0 -i 8 -k RTR
h -t 100.148963977 -s 4 -d 3 -p ack -e 88 -c 2 -a 0 -i 8 -k RTR
+ -t 100.151485977 -s 3 -d 2 -p ack -e 88 -c 2 -a 0 -i 8 -k RTR 
- -t 100.151485977 -s 3 -d 2 -p ack -e 88 -c 2 -a 0 -i 8 -k RTR
h -t 100.151485977 -s 3 -d 2 -p ack -e 88 -c 2 -a 0 -i 8 -k RTR
+ -t 100.154147977 -s 2 -d 0 -p ack -e 88 -c 2 -a 0 -i 8 -k RTR 
- -t 100.154147977 -s 2 -d 0 -p ack -e 88 -c 2 -a 0 -i 8 -k RTR
h -t 100.154147977 -s 2 -d 0 -p ack -e 88 -c 2 -a 0 -i 8 -k RTR
r -t 100.156529977 -s 0 -d 0 -p ack -e 40 -c 2 -a 0 -i 8 -k AGT
+ -t 100.156529977 -s 0 -d -1 -p tcp -e 552 -c 2 -a 0 -i 9 -k AGT 
- -t 100.156529977 -s 0 -d -1 -p tcp -e 552 -c 2 -a 0 -i 9 -k AGT
h -t 100.156529977 -s 0 -d -1 -p tcp -e 552 -c 2 -a 0 -i 9 -k AGT
+ -t 100.156529977 -s 0 -d -1 -p tcp -e 552 -c 2 -a 0 -i 10 -k AGT 
- -t 100.156529977 -s 0 -d -1 -p tcp -e 552 -c 2 -a 0 -i 10 -k AGT
h -t 100.156529977 -s 0 -d -1 -p tcp -e 552 -c 2 -a 0 -i 10 -k AGT
+ -t 100.156529977 -s 0 -d 2 -p tcp -e 572 -c 2 -a 0 -i 9 -k RTR 
- -t 100.156529977 -s 0 -d 2 -p tcp -e 572 -c 2 -a 0 -i 9 -k RTR
h -t 100.156529977 -s 0 -d 2 -p tcp -e 572 -c 2 -a 0 -i 9 -k RTR
+ -t 100.156529977 -s 0 -d 2 -p tcp -e 572 -c 2 -a 0 -i 10 -k RTR 
- -t 100.156529977 -s 0 -d 2 -p tcp -e 572 -c 2 -a 0 -i 10 -k RTR
h -t 100.156529977 -s 0 -d 2 -p tcp -e 572 -c 2 -a 0 -i 10 -k RTR
+ -t 100.165127977 -s 2 -d 3 -p tcp -e 600 -c 2 -a 0 -i 7 -k RTR 
- -t 100.165127977 -s 2 -d 3 -p tcp -e 600 -c 2 -a 0 -i 7 -k RTR
h -t 100.165127977 -s 2 -d 3 -p tcp -e 600 -c 2 -a 0 -i 7 -k RTR
+ -t 100.171202644 -s 2 -d 3 -p tcp -e 572 -c 2 -a 0 -i 9 -k RTR 
- -t 100.171202644 -s 2 -d 3 -p tcp -e 572 -c 2 -a 0 -i 9 -k RTR
h -t 100.171202644 -s 2 -d 3 -p tcp -e 572 -c 2 -a 0 -i 9 -k RTR
+ -t 100.177660644 -s 3 -d 4 -p tcp -e 600 -c 2 -a 0 -i 7 -k RTR 
- -t 100.177660644 -s 3 -d 4 -p tcp -e 600 -c 2 -a 0 -i 7 -k RTR
h -t 100.177660644 -s 3 -d 4 -p tcp -e 600 -c 2 -a 0 -i 7 -k RTR
+ -t 100.184238644 -s 4 -d 1 -p tcp -e 600 -c 2 -a 0 -i 7 -k RTR 
- -t 100.184238644 -s 4 -d 1 -p tcp -e 600 -c 2 -a 0 -i 7 -k RTR
h -t 100.184238644 -s 4 -d 1 -p tcp -e 600 -c 2 -a 0 -i 7 -k RTR
+ -t 100.190677977 -s 3 -d 4 -p tcp -e 572 -c 2 -a 0 -i 9 -k RTR 
- -t 100.190677977 -s 3 -d 4 -p tcp -e 572 -c 2 -a 0 -i 9 -k RTR
h -t 100.190677977 -s 3 -d 4 -p tcp -e 572 -c 2 -a 0 -i 9 -k RTR
+ -t 100.196771977 -s 4 -d 1 -p tcp -e 572 -c 2 -a 0 -i 9 -k RTR 
- -t 100.196771977 -s 4 -d 1 -p tcp -e 572 -c 2 -a 0 -i 9 -k RTR
h -t 100.196771977 -s 4 -d 1 -p tcp -e 572 -c 2 -a 0 -i 9 -k RTR
r -t 100.203049977 -s 1 -d 1 -p tcp -e 552 -c 2 -a 0 -i 7 -k AGT
+ -t 100.203049977 -s 1 -d -1 -p ack -e 40 -c 2 -a 0 -i 11 -k AGT 
- -t 100.203049977 -s 1 -d -1 -p ack -e 40 -c 2 -a 0 -i 11 -k AGT
h -t 100.203049977 -s 1 -d -1 -p ack -e 40 -c 2 -a 0 -i 11 -k AGT
+ -t 100.203049977 -s 1 -d 4 -p ack -e 88 -c 2 -a 0 -i 11 -k RTR 
- -t 100.203049977 -s 1 -d 4 -p ack -e 88 -c 2 -a 0 -i 11 -k RTR
h -t 100.203049977 -s 1 -d 4 -p ack -e 88 -c 2 -a 0 -i 11 -k RTR
r -t 100.209124644 -s 1 -d 1 -p tcp -e 552 -c 2 -a 0 -i 9 -k AGT
+ -t 100.209124644 -s 1 -d -1 -p ack -e 40 -c 2 -a 0 -i 12 -k AGT 
- -t 100.209124644 -s 1 -d -1 -p ack -e 40 -c 2 -a 0 -i 12 -k AGT
h -t 100.209124644 -s 1 -d -1 -p ack -e 40 -c 2 -a 0 -i 12 -k AGT
+ -t 100.209124644 -s 1 -d 4 -p ack -e 60 -c 2 -a 0 -i 12 -k RTR 
- -t 100.209124644 -s 1 -d 4 -p ack -e 60 -c 2 -a 0 -i 12 -k RTR
h -t 100.209124644 -s 1 -d 4 -p ack -e 60 -c 2 -a 0 -i 12 -k RTR
+ -t 100.211466644 -s 4 -d 3 -p ack -e 88 -c 2 -a 0 -i 11 -k RTR 
- -t 100.211466644 -s 4 -d 3 -p ack -e 88 -c 2 -a 0 -i 11 -k RTR
h -t 100.211466644 -s 4 -d 3 -p ack -e 88 -c 2 -a 0 -i 11 -k RTR
+ -t 100.213485311 -s 4 -d 3 -p ack -e 60 -c 2 -a 0 -i 12 -k RTR 
- -t 100.213485311 -s 4 -d 3 -p ack -e 60 -c 2 -a 0 -i 12 -k RTR
h -t 100.213485311 -s 4 -d 3 -p ack -e 60 -c 2 -a 0 -i 12 -k RTR
+ -t 100.215667311 -s 3 -d 2 -p ack -e 88 -c 2 -a 0 -i 11 -k RTR 
- -t 100.215667311 -s 3 -d 2 -p ack -e 88 -c 2 -a 0 -i 11 -k RTR
h -t 100.215667311 -s 3 -d 2 -p ack -e 88 -c 2 -a 0 -i 11 -k RTR
+ -t 100.218129311 -s 2 -d 0 -p ack -e 88 -c 2 -a 0 -i 11 -k RTR 
- -t 100.218129311 -s 2 -d 0 -p ack -e 88 -c 2 -a 0 -i 11 -k RTR
h -t 100.218129311 -s 2 -d 0 -p ack -e 88 -c 2 -a 0 -i 11 -k RTR
r -t 100.220871311 -s 0 -d 0 -p ack -e 40 -c 2 -a 0 -i 11 -k AGT
+ -t 100.220871311 -s 0 -d -1 -p tcp -e 552 -c 2 -a 0 -i 13 -k AGT 
- -t 100.220871311 -s 0 -d -1 -p tcp -e 552 -c 2 -a 0 -i 13 -k AGT
h -t 100.220871311 -s 0 -d -1 -p tcp -e 552 -c 2 -a 0 -i 13 -k AGT
+ -t 100.220871311 -s 0 -d -1 -p tcp -e 552 -c 2 -a 0 -i 14 -k AGT 
- -t 100.220871311 -s 0 -d -1 -p tcp -e 552 -c 2 -a 0 -i 14 -k AGT
h -t 100.220871311 -s 0 -d -1 -p tcp -e 552 -c 2 -a 0 -i 14 -k AGT
+ -t 100.220871311 -s 0 -d 2 -p tcp -e 572 -c 2 -a 0 -i 13 -k RTR 
- -t 100.220871311 -s 0 -d 2 -p tcp -e 572 -c 2 -a 0 -i 13 -k RTR
h -t 100.220871311 -s 0 -d 2 -p tcp -e 572 -c 2 -a 0 -i 13 -k RTR
+ -t 100.220871311 -s 0 -d 2 -p tcp -e 572 -c 2 -a 0 -i 14 -k RTR 
- -t 100.220871311 -s 0 -d 2 -p tcp -e 572 -c 2 -a 0 -i 14 -k RTR
h -t 100.220871311 -s 0 -d 2 -p tcp -e 572 -c 2 -a 0 -i 14 -k RTR
+ -t 100.222979977 -s 3 -d 2 -p ack -e 60 -c 2 -a 0 -i 12 -k RTR 
- -t 100.222979977 -s 3 -d 2 -p ack -e 60 -c 2 -a 0 -i 12 -k RTR
h -t 100.222979977 -s 3 -d 2 -p ack -e 60 -c 2 -a 0 -i 12 -k RTR
+ -t 100.225157977 -s 2 -d 0 -p ack -e 60 -c 2 -a 0 -i 12 -k RTR 
- -t 100.225157977 -s 2 -d 0 -p ack -e 60 -c 2 -a 0 -i 12 -k RTR
h -t 100.225157977 -s 2 -d 0 -p ack -e 60 -c 2 -a 0 -i 12 -k RTR
r -t 100.227175977 -s 0 -d 0 -p ack -e 40 -c 2 -a 0 -i 12 -k AGT
+ -t 100.227175977 -s 0 -d -1 -p tcp -e 552 -c 2 -a 0 -i 15 -k AGT 
- -t 100.227175977 -s 0 -d -1 -p tcp -e 552 -c 2 -a 0 -i 15 -k AGT
h -t 100.227175977 -s 0 -d -1 -p tcp -e 552 -c 2 -a 0 -i 15 -k AGT
+ -t 100.227175977 -s 0 -d -1 -p tcp -e 552 -c 2 -a 0 -i 16 -k AGT 
- -t 100.227175977 -s 0 -d -1 -p tcp -e 552 -c 2 -a 0 -i 16 -k AGT
h -t 100.227175977 -s 0 -d -1 -p tcp -e 552 -c 2 -a 0 -i 16 -k AGT
+ -t 100.227175977 -s 0 -d 2 -p tcp -e 572 -c 2 -a 0 -i 15 -k RTR 
- -t 100.227175977 -s 0 -d 2 -p tcp -e 572 -c 2 -a 0 -i 15 -k RTR
h -t 100.227175977 -s 0 -d 2 -p tcp -e 572 -c 2 -a 0 -i 15 -k RTR
+ -t 100.227175977 -s 0 -d 2 -p tcp -e 572 -c 2 -a 0 -i 16 -k RTR 
- -t 100.227175977 -s 0 -d 2 -p tcp -e 572 -c 2 -a 0 -i 16 -k RTR
h -t 100.227175977 -s 0 -d 2 -p tcp -e 572 -c 2 -a 0 -i 16 -k RTR
+ -t 100.245069977 -s 2 -d 3 -p tcp -e 572 -c 2 -a 0 -i 10 -k RTR 
- -t 100.245069977 -s 2 -d 3 -p tcp -e 572 -c 2 -a 0 -i 10 -k RTR
h -t 100.245069977 -s 2 -d 3 -p tcp -e 572 -c 2 -a 0 -i 10 -k RTR
+ -t 100.251464644 -s 2 -d 3 -p tcp -e 572 -c 2 -a 0 -i 13 -k RTR 
- -t 100.251464644 -s 2 -d 3 -p tcp -e 572 -c 2 -a 0 -i 13 -k RTR
h -t 100.251464644 -s 2 -d 3 -p tcp -e 572 -c 2 -a 0 -i 13 -k RTR
+ -t 100.257678644 -s 3 -d 4 -p tcp -e 572 -c 2 -a 0 -i 10 -k RTR 
- -t 100.257678644 -s 3 -d 4 -p tcp -e 572 -c 2 -a 0 -i 10 -k RTR
h -t 100.257678644 -s 3 -d 4 -p tcp -e 572 -c 2 -a 0 -i 10 -k RTR
+ -t 100.263932644 -s 4 -d 1 -p tcp -e 572 -c 2 -a 0 -i 10 -k RTR 
- -t 100.263932644 -s 4 -d 1 -p tcp -e 572 -c 2 -a 0 -i 10 -k RTR
h -t 100.263932644 -s 4 -d 1 -p tcp -e 572 -c 2 -a 0 -i 10 -k RTR
r -t 100.269966644 -s 1 -d 1 -p tcp -e 552 -c 2 -a 0 -i 10 -k AGT
+ -t 100.269966644 -s 1 -d -1 -p ack -e 40 -c 2 -a 0 -i 17 -k AGT 
- -t 100.269966644 -s 1 -d -1 -p ack -e 40 -c 2 -a 0 -i 17 -k AGT
h -t 100.269966644 -s 1 -d -1 -p ack -e 40 -c 2 -a 0 -i 17 -k AGT
+ -t 100.269966644 -s 1 -d 4 -p ack -e 60 -c 2 -a 0 -i 17 -k RTR 
- -t 100.269966644 -s 1 -d 4 -p ack -e 60 -c 2 -a 0 -i 17 -k RTR
h -t 100.269966644 -s 1 -d 4 -p ack -e 60 -c 2 -a 0 -i 17 -k RTR
+ -t 100.278504644 -s 4 -d 3 -p ack -e 60 -c 2 -a 0 -i 17 -k RTR 
- -t 100.278504644 -s 4 -d 3 -p ack -e 60 -c 2 -a 0 -i 17 -k RTR
h -t 100.278504644 -s 4 -d 3 -p ack -e 60 -c 2 -a 0 -i 17 -k RTR
+ -t 100.281042644 -s 3 -d 2 -p ack -e 60 -c 2 -a 0 -i 17 -k RTR 
- -t 100.281042644 -s 3 -d 2 -p ack -e 60 -c 2 -a 0 -i 17 -k RTR
h -t 100.281042644 -s 3 -d 2 -p ack -e 60 -c 2 -a 0 -i 17 -k RTR
+ -t 100.283020644 -s 2 -d 0 -p ack -e 60 -c 2 -a 0 -i 17 -k RTR 
- -t 100.283020644 -s 2 -d 0 -p ack -e 60 -c 2 -a 0 -i 17 -k RTR
h -t 100.283020644 -s 2 -d 0 -p ack -e 60 -c 2 -a 0 -i 17 -k RTR
+ -t 100.289154644 -s 3 -d 4 -p tcp -e 572 -c 2 -a 0 -i 13 -k RTR 
- -t 100.289154644 -s 3 -d 4 -p tcp -e 572 -c 2 -a 0 -i 13 -k RTR
h -t 100.289154644 -s 3 -d 4 -p tcp -e 572 -c 2 -a 0 -i 13 -k RTR
r -t 100.291553311 -s 0 -d 0 -p ack -e 40 -c 2 -a 0 -i 17 -k AGT
+ -t 100.291553311 -s 0 -d -1 -p tcp -e 552 -c 2 -a 0 -i 18 -k AGT 
- -t 100.291553311 -s 0 -d -1 -p tcp -e 552 -c 2 -a 0 -i 18 -k AGT
h -t 100.291553311 -s 0 -d -1 -p tcp -e 552 -c 2 -a 0 -i 18 -k AGT
+ -t 100.291553311 -s 0 -d -1 -p tcp -e 552 -c 2 -a 0 -i 19 -k AGT 
- -t 100.291553311 -s 0 -d -1 -p tcp -e 552 -c 2 -a 0 -i 19 -k AGT
h -t 100.291553311 -s 0 -d -1 -p tcp -e 552 -c 2 -a 0 -i 19 -k AGT
+ -t 100.291553311 -s 0 -d 2 -p tcp -e 572 -c 2 -a 0 -i 18 -k RTR 
- -t 100.291553311 -s 0 -d 2 -p tcp -e 572 -c 2 -a 0 -i 18 -k RTR
h -t 100.291553311 -s 0 -d 2 -p tcp -e 572 -c 2 -a 0 -i 18 -k RTR
+ -t 100.291553311 -s 0 -d 2 -p tcp -e 572 -c 2 -a 0 -i 19 -k RTR 
- -t 100.291553311 -s 0 -d 2 -p tcp -e 572 -c 2 -a 0 -i 19 -k RTR
h -t 100.291553311 -s 0 -d 2 -p tcp -e 572 -c 2 -a 0 -i 19 -k RTR
+ -t 100.298032644 -s 4 -d 1 -p tcp -e 572 -c 2 -a 0 -i 13 -k RTR 
- -t 100.298032644 -s 4 -d 1 -p tcp -e 572 -c 2 -a 0 -i 13 -k RTR
h -t 100.298032644 -s 4 -d 1 -p tcp -e 572 -c 2 -a 0 -i 13 -k RTR
r -t 100.304546644 -s 1 -d 1 -p tcp -e 552 -c 2 -a 0 -i 13 -k AGT
+ -t 100.304546644 -s 1 -d -1 -p ack -e 40 -c 2 -a 0 -i 20 -k AGT 
- -t 100.304546644 -s 1 -d -1 -p ack -e 40 -c 2 -a 0 -i 20 -k AGT
h -t 100.304546644 -s 1 -d -1 -p ack -e 40 -c 2 -a 0 -i 20 -k AGT
+ -t 100.304546644 -s 1 -d 4 -p ack -e 60 -c 2 -a 0 -i 20 -k RTR 
- -t 100.304546644 -s 1 -d 4 -p ack -e 60 -c 2 -a 0 -i 20 -k RTR
h -t 100.304546644 -s 1 -d 4 -p ack -e 60 -c 2 -a 0 -i 20 -k RTR
+ -t 100.306924644 -s 4 -d 3 -p ack -e 60 -c 2 -a 0 -i 20 -k RTR 
- -t 100.306924644 -s 4 -d 3 -p ack -e 60 -c 2 -a 0 -i 20 -k RTR
h -t 100.306924644 -s 4 -d 3 -p ack -e 60 -c 2 -a 0 -i 20 -k RTR
+ -t 100.308922644 -s 3 -d 2 -p ack -e 60 -c 2 -a 0 -i 20 -k RTR 
- -t 100.308922644 -s 3 -d 2 -p ack -e 60 -c 2 -a 0 -i 20 -k RTR
h -t 100.308922644 -s 3 -d 2 -p ack -e 60 -c 2 -a 0 -i 20 -k RTR
+ -t 100.310860644 -s 2 -d 0 -p ack -e 60 -c 2 -a 0 -i 20 -k RTR 
- -t 100.310860644 -s 2 -d 0 -p ack -e 60 -c 2 -a 0 -i 20 -k RTR
h -t 100.310860644 -s 2 -d 0 -p ack -e 60 -c 2 -a 0 -i 20 -k RTR
r -t 100.313298644 -s 0 -d 0 -p ack -e 40 -c 2 -a 0 -i 20 -k AGT
+ -t 100.313298644 -s 0 -d -1 -p tcp -e 552 -c 2 -a 0 -i 21 -k AGT 
- -t 100.313298644 -s 0 -d -1 -p tcp -e 552 -c 2 -a 0 -i 21 -k AGT
h -t 100.313298644 -s 0 -d -1 -p tcp -e 552 -c 2 -a 0 -i 21 -k AGT
+ -t 100.313298644 -s 0 -d -1 -p tcp -e 552 -c 2 -a 0 -i 22 -k AGT 
- -t 100.313298644 -s 0 -d -1 -p tcp -e 552 -c 2 -a 0 -i 22 -k AGT
h -t 100.313298644 -s 0 -d -1 -p tcp -e 552 -c 2 -a 0 -i 22 -k AGT
+ -t 100.313298644 -s 0 -d 2 -p tcp -e 572 -c 2 -a 0 -i 21 -k RTR 
- -t 100.313298644 -s 0 -d 2 -p tcp -e 572 -c 2 -a 0 -i 21 -k RTR
h -t 100.313298644 -s 0 -d 2 -p tcp -e 572 -c 2 -a 0 -i 21 -k RTR
+ -t 100.313298644 -s 0 -d 2 -p tcp -e 572 -c 2 -a 0 -i 22 -k RTR 
- -t 100.313298644 -s 0 -d 2 -p tcp -e 572 -c 2 -a 0 -i 22 -k RTR
h -t 100.313298644 -s 0 -d 2 -p tcp -e 572 -c 2 -a 0 -i 22 -k RTR
+ -t 100.326832644 -s 2 -d 3 -p tcp -e 572 -c 2 -a 0 -i 14 -k RTR 
- -t 100.326832644 -s 2 -d 3 -p tcp -e 572 -c 2 -a 0 -i 14 -k RTR
h -t 100.326832644 -s 2 -d 3 -p tcp -e 572 -c 2 -a 0 -i 14 -k RTR
+ -t 100.332906644 -s 3 -d 4 -p tcp -e 572 -c 2 -a 0 -i 14 -k RTR 
- -t 100.332906644 -s 3 -d 4 -p tcp -e 572 -c 2 -a 0 -i 14 -k RTR
h -t 100.332906644 -s 3 -d 4 -p tcp -e 572 -c 2 -a 0 -i 14 -k RTR
+ -t 100.339345977 -s 2 -d 3 -p tcp -e 572 -c 2 -a 0 -i 15 -k RTR 
- -t 100.339345977 -s 2 -d 3 -p tcp -e 572 -c 2 -a 0 -i 15 -k RTR
h -t 100.339345977 -s 2 -d 3 -p tcp -e 572 -c 2 -a 0 -i 15 -k RTR
+ -t 100.345520644 -s 2 -d 3 -p tcp -e 572 -c 2 -a 0 -i 16 -k RTR 
- -t 100.345520644 -s 2 -d 3 -p tcp -e 572 -c 2 -a 0 -i 16 -k RTR
h -t 100.345520644 -s 2 -d 3 -p tcp -e 572 -c 2 -a 0 -i 16 -k RTR
+ -t 100.351685311 -s 4 -d 1 -p tcp -e 572 -c 2 -a 0 -i 14 -k RTR 
- -t 100.351685311 -s 4 -d 1 -p tcp -e 572 -c 2 -a 0 -i 14 -k RTR
h -t 100.351685311 -s 4 -d 1 -p tcp -e 572 -c 2 -a 0 -i 14 -k RTR
r -t 100.358319311 -s 1 -d 1 -p tcp -e 552 -c 2 -a 0 -i 14 -k AGT
+ -t 100.358319311 -s 1 -d -1 -p ack -e 40 -c 2 -a 0 -i 23 -k AGT 
- -t 100.358319311 -s 1 -d -1 -p ack -e 40 -c 2 -a 0 -i 23 -k AGT
h -t 100.358319311 -s 1 -d -1 -p ack -e 40 -c 2 -a 0 -i 23 -k AGT
+ -t 100.358319311 -s 1 -d 4 -p ack -e 60 -c 2 -a 0 -i 23 -k RTR 
- -t 100.358319311 -s 1 -d 4 -p ack -e 60 -c 2 -a 0 -i 23 -k RTR
h -t 100.358319311 -s 1 -d 4 -p ack -e 60 -c 2 -a 0 -i 23 -k RTR
+ -t 100.361457311 -s 4 -d 3 -p ack -e 60 -c 2 -a 0 -i 23 -k RTR 
- -t 100.361457311 -s 4 -d 3 -p ack -e 60 -c 2 -a 0 -i 23 -k RTR
h -t 100.361457311 -s 4 -d 3 -p ack -e 60 -c 2 -a 0 -i 23 -k RTR
+ -t 100.364026644 -s 3 -d 2 -p ack -e 60 -c 2 -a 0 -i 23 -k RTR 
- -t 100.364026644 -s 3 -d 2 -p ack -e 60 -c 2 -a 0 -i 23 -k RTR
h -t 100.364026644 -s 3 -d 2 -p ack -e 60 -c 2 -a 0 -i 23 -k RTR
+ -t 100.366484644 -s 2 -d 0 -p ack -e 60 -c 2 -a 0 -i 23 -k RTR 
- -t 100.366484644 -s 2 -d 0 -p ack -e 60 -c 2 -a 0 -i 23 -k RTR
h -t 100.366484644 -s 2 -d 0 -p ack -e 60 -c 2 -a 0 -i 23 -k RTR
+ -t 100.373358644 -s 3 -d 4 -p tcp -e 572 -c 2 -a 0 -i 15 -k RTR 
- -t 100.373358644 -s 3 -d 4 -p tcp -e 572 -c 2 -a 0 -i 15 -k RTR
h -t 100.373358644 -s 3 -d 4 -p tcp -e 572 -c 2 -a 0 -i 15 -k RTR
r -t 100.375457311 -s 0 -d 0 -p ack -e 40 -c 2 -a 0 -i 23 -k AGT
+ -t 100.375457311 -s 0 -d -1 -p tcp -e 552 -c 2 -a 0 -i 24 -k AGT 
- -t 100.375457311 -s 0 -d -1 -p tcp -e 552 -c 2 -a 0 -i 24 -k AGT
h -t 100.375457311 -s 0 -d -1 -p tcp -e 552 -c 2 -a 0 -i 24 -k AGT
+ -t 100.375457311 -s 0 -d -1 -p tcp -e 552 -c 2 -a 0 -i 25 -k AGT 
- -t 100.375457311 -s 0 -d -1 -p tcp -e 552 -c 2 -a 0 -i 25 -k AGT
h -t 100.375457311 -s 0 -d -1 -p tcp -e 552 -c 2 -a 0 -i 25 -k AGT
+ -t 100.375457311 -s 0 -d 2 -p tcp -e 572 -c 2 -a 0 -i 24 -k RTR 
- -t 100.375457311 -s 0 -d 2 -p tcp -e 572 -c 2 -a 0 -i 24 -k RTR
h -t 100.375457311 -s 0 -d 2 -p tcp -e 572 -c 2 -a 0 -i 24 -k RTR
+ -t 100.375457311 -s 0 -d 2 -p tcp -e 572 -c 2 -a 0 -i 25 -k RTR 
- -t 100.375457311 -s 0 -d 2 -p tcp -e 572 -c 2 -a 0 -i 25 -k RTR
h -t 100.375457311 -s 0 -d 2 -p tcp -e 572 -c 2 -a 0 -i 25 -k RTR
+ -t 100.381811977 -s 3 -d 4 -p tcp -e 572 -c 2 -a 0 -i 16 -k RTR 
- -t 100.381811977 -s 3 -d 4 -p tcp -e 572 -c 2 -a 0 -i 16 -k RTR
h -t 100.381811977 -s 3 -d 4 -p tcp -e 572 -c 2 -a 0 -i 16 -k RTR
+ -t 100.388085977 -s 4 -d 1 -p tcp -e 572 -c 2 -a 0 -i 15 -k RTR 
- -t 100.388085977 -s 4 -d 1 -p tcp -e 572 -c 2 -a 0 -i 15 -k RTR
h -t 100.388085977 -s 4 -d 1 -p tcp -e 572 -c 2 -a 0 -i 15 -k RTR
+ -t 100.394120644 -s 4 -d 1 -p tcp -e 572 -c 2 -a 0 -i 16 -k RTR 
- -t 100.394120644 -s 4 -d 1 -p tcp -e 572 -c 2 -a 0 -i 16 -k RTR
h -t 100.394120644 -s 4 -d 1 -p tcp -e 572 -c 2 -a 0 -i 16 -k RTR
r -t 100.400734644 -s 1 -d 1 -p tcp -e 552 -c 2 -a 0 -i 15 -k AGT
+ -t 100.400734644 -s 1 -d -1 -p ack -e 40 -c 2 -a 0 -i 26 -k AGT 
- -t 100.400734644 -s 1 -d -1 -p ack -e 40 -c 2 -a 0 -i 26 -k AGT
h -t 100.400734644 -s 1 -d -1 -p ack -e 40 -c 2 -a 0 -i 26 -k AGT
+ -t 100.400734644 -s 1 -d 4 -p ack -e 60 -c 2 -a 0 -i 26 -k RTR 
- -t 100.400734644 -s 1 -d 4 -p ack -e 60 -c 2 -a 0 -i 26 -k RTR
h -t 100.400734644 -s 1 -d 4 -p ack -e 60 -c 2 -a 0 -i 26 -k RTR
r -t 100.406849311 -s 1 -d 1 -p tcp -e 552 -c 2 -a 0 -i 16 -k AGT
+ -t 100.406849311 -s 1 -d -1 -p ack -e 40 -c 2 -a 0 -i 33 -k AGT 
- -t 100.406849311 -s 1 -d -1 -p ack -e 40 -c 2 -a 0 -i 33 -k AGT
h -t 100.406849311 -s 1 -d -1 -p ack -e 40 -c 2 -a 0 -i 33 -k AGT
+ -t 100.406849311 -s 1 -d 4 -p ack -e 60 -c 2 -a 0 -i 33 -k RTR 
- -t 100.406849311 -s 1 -d 4 -p ack -e 60 -c 2 -a 0 -i 33 -k RTR
h -t 100.406849311 -s 1 -d 4 -p ack -e 60 -c 2 -a 0 -i 33 -k RTR
+ -t 100.409087311 -s 4 -d 3 -p ack -e 60 -c 2 -a 0 -i 26 -k RTR 
- -t 100.409087311 -s 4 -d 3 -p ack -e 60 -c 2 -a 0 -i 26 -k RTR
h -t 100.409087311 -s 4 -d 3 -p ack -e 60 -c 2 -a 0 -i 26 -k RTR
+ -t 100.411325311 -s 3 -d 2 -p ack -e 60 -c 2 -a 0 -i 26 -k RTR 
- -t 100.411325311 -s 3 -d 2 -p ack -e 60 -c 2 -a 0 -i 26 -k RTR
h -t 100.411325311 -s 3 -d 2 -p ack -e 60 -c 2 -a 0 -i 26 -k RTR
+ -t 100.413423311 -s 2 -d 0 -p ack -e 60 -c 2 -a 0 -i 26 -k RTR 
- -t 100.413423311 -s 2 -d 0 -p ack -e 60 -c 2 -a 0 -i 26 -k RTR
h -t 100.413423311 -s 2 -d 0 -p ack -e 60 -c 2 -a 0 -i 26 -k RTR
+ -t 100.414852394 -s 0 -d -1 -p DSR -e 32 -c 2 -a 0 -i 27 -k RTR 
- -t 100.414852394 -s 0 -d -1 -p DSR -e 32 -c 2 -a 0 -i 27 -k RTR
h -t 100.414852394 -s 0 -d -1 -p DSR -e 32 -c 2 -a 0 -i 27 -k RTR
r -t 100.415461311 -s 0 -d 0 -p ack -e 40 -c 2 -a 0 -i 26 -k AGT
+ -t 100.415461311 -s 0 -d -1 -p tcp -e 552 -c 2 -a 0 -i 34 -k AGT 
- -t 100.415461311 -s 0 -d -1 -p tcp -e 552 -c 2 -a 0 -i 34 -k AGT
h -t 100.415461311 -s 0 -d -1 -p tcp -e 552 -c 2 -a 0 -i 34 -k AGT
+ -t 100.415461311 -s 0 -d -1 -p tcp -e 552 -c 2 -a 0 -i 36 -k AGT 
- -t 100.415461311 -s 0 -d -1 -p tcp -e 552 -c 2 -a 0 -i 36 -k AGT
h -t 100.415461311 -s 0 -d -1 -p tcp -e 552 -c 2 -a 0 -i 36 -k AGT
+ -t 100.417291977 -s 4 -d 3 -p ack -e 60 -c 2 -a 0 -i 33 -k RTR 
- -t 100.417291977 -s 4 -d 3 -p ack -e 60 -c 2 -a 0 -i 33 -k RTR
h -t 100.417291977 -s 4 -d 3 -p ack -e 60 -c 2 -a 0 -i 33 -k RTR
+ -t 100.419829977 -s 3 -d 2 -p ack -e 60 -c 2 -a 0 -i 33 -k RTR 
- -t 100.419829977 -s 3 -d 2 -p ack -e 60 -c 2 -a 0 -i 33 -k RTR
h -t 100.419829977 -s 3 -d 2 -p ack -e 60 -c 2 -a 0 -i 33 -k RTR
+ -t 100.422367977 -s 2 -d 0 -p ack -e 60 -c 2 -a 0 -i 33 -k RTR 
- -t 100.422367977 -s 2 -d 0 -p ack -e 60 -c 2 -a 0 -i 33 -k RTR
h -t 100.422367977 -s 2 -d 0 -p ack -e 60 -c 2 -a 0 -i 33 -k RTR
r -t 100.424525977 -s 0 -d 0 -p ack -e 40 -c 2 -a 0 -i 33 -k AGT
+ -t 100.424525977 -s 0 -d -1 -p tcp -e 552 -c 2 -a 0 -i 46 -k AGT 
- -t 100.424525977 -s 0 -d -1 -p tcp -e 552 -c 2 -a 0 -i 46 -k AGT
h -t 100.424525977 -s 0 -d -1 -p tcp -e 552 -c 2 -a 0 -i 46 -k AGT
+ -t 100.424525977 -s 0 -d -1 -p tcp -e 552 -c 2 -a 0 -i 48 -k AGT 
- -t 100.424525977 -s 0 -d -1 -p tcp -e 552 -c 2 -a 0 -i 48 -k AGT
h -t 100.424525977 -s 0 -d -1 -p tcp -e 552 -c 2 -a 0 -i 48 -k AGT
+ -t 100.461877605 -s 0 -d -1 -p DSR -e 32 -c 2 -a 0 -i 50 -k RTR 
- -t 100.461877605 -s 0 -d -1 -p DSR -e 32 -c 2 -a 0 -i 50 -k RTR
h -t 100.461877605 -s 0 -d -1 -p DSR -e 32 -c 2 -a 0 -i 50 -k RTR
+ -t 100.462890272 -s 2 -d 0 -p DSR -e 56 -c 2 -a 0 -i 60 -k RTR 
- -t 100.462890272 -s 2 -d 0 -p DSR -e 56 -c 2 -a 0 -i 60 -k RTR
h -t 100.462890272 -s 2 -d 0 -p DSR -e 56 -c 2 -a 0 -i 60 -k RTR
+ -t 100.464972272 -s 0 -d 2 -p tcp -e 600 -c 2 -a 0 -i 18 -k RTR 
- -t 100.464972272 -s 0 -d 2 -p tcp -e 600 -c 2 -a 0 -i 18 -k RTR
h -t 100.464972272 -s 0 -d 2 -p tcp -e 600 -c 2 -a 0 -i 18 -k RTR
+ -t 100.471370272 -s 2 -d 3 -p tcp -e 600 -c 2 -a 0 -i 18 -k RTR 
- -t 100.471370272 -s 2 -d 3 -p tcp -e 600 -c 2 -a 0 -i 18 -k RTR
h -t 100.471370272 -s 2 -d 3 -p tcp -e 600 -c 2 -a 0 -i 18 -k RTR
+ -t 100.477948272 -s 3 -d 4 -p tcp -e 600 -c 2 -a 0 -i 18 -k RTR 
- -t 100.477948272 -s 3 -d 4 -p tcp -e 600 -c 2 -a 0 -i 18 -k RTR
h -t 100.477948272 -s 3 -d 4 -p tcp -e 600 -c 2 -a 0 -i 18 -k RTR
+ -t 100.484726272 -s 4 -d 1 -p tcp -e 600 -c 2 -a 0 -i 18 -k RTR 
- -t 100.484726272 -s 4 -d 1 -p tcp -e 600 -c 2 -a 0 -i 18 -k RTR
h -t 100.484726272 -s 4 -d 1 -p tcp -e 600 -c 2 -a 0 -i 18 -k RTR
r -t 100.491004272 -s 1 -d 1 -p tcp -e 552 -c 2 -a 0 -i 18 -k AGT
+ -t 100.491004272 -s 1 -d -1 -p ack -e 40 -c 2 -a 0 -i 61 -k AGT 
- -t 100.491004272 -s 1 -d -1 -p ack -e 40 -c 2 -a 0 -i 61 -k AGT
h -t 100.491004272 -s 1 -d -1 -p ack -e 40 -c 2 -a 0 -i 61 -k AGT
+ -t 100.491004272 -s 1 -d 4 -p ack -e 60 -c 2 -a 0 -i 61 -k RTR 
- -t 100.491004272 -s 1 -d 4 -p ack -e 60 -c 2 -a 0 -i 61 -k RTR
h -t 100.491004272 -s 1 -d 4 -p ack -e 60 -c 2 -a 0 -i 61 -k RTR
+ -t 100.493382272 -s 4 -d 3 -p ack -e 60 -c 2 -a 0 -i 61 -k RTR 
- -t 100.493382272 -s 4 -d 3 -p ack -e 60 -c 2 -a 0 -i 61 -k RTR
h -t 100.493382272 -s 4 -d 3 -p ack -e 60 -c 2 -a 0 -i 61 -k RTR
+ -t 100.494972272 -s 0 -d 2 -p tcp -e 600 -c 2 -a 0 -i 19 -k RTR 
- -t 100.494972272 -s 0 -d 2 -p tcp -e 600 -c 2 -a 0 -i 19 -k RTR
h -t 100.494972272 -s 0 -d 2 -p tcp -e 600 -c 2 -a 0 -i 19 -k RTR
+ -t 100.495380272 -s 3 -d 2 -p ack -e 60 -c 2 -a 0 -i 61 -k RTR 
- -t 100.495380272 -s 3 -d 2 -p ack -e 60 -c 2 -a 0 -i 61 -k RTR
h -t 100.495380272 -s 3 -d 2 -p ack -e 60 -c 2 -a 0 -i 61 -k RTR
+ -t 100.497478272 -s 2 -d 0 -p ack -e 60 -c 2 -a 0 -i 61 -k RTR 
- -t 100.497478272 -s 2 -d 0 -p ack -e 60 -c 2 -a 0 -i 61 -k RTR
h -t 100.497478272 -s 2 -d 0 -p ack -e 60 -c 2 -a 0 -i 61 -k RTR
+ -t 100.503806938 -s 2 -d 3 -p tcp -e 600 -c 2 -a 0 -i 19 -k RTR 
- -t 100.503806938 -s 2 -d 3 -p tcp -e 600 -c 2 -a 0 -i 19 -k RTR
h -t 100.503806938 -s 2 -d 3 -p tcp -e 600 -c 2 -a 0 -i 19 -k RTR
r -t 100.506264938 -s 0 -d 0 -p ack -e 40 -c 2 -a 0 -i 61 -k AGT
+ -t 100.506264938 -s 0 -d -1 -p tcp -e 552 -c 2 -a 0 -i 62 -k AGT 
- -t 100.506264938 -s 0 -d -1 -p tcp -e 552 -c 2 -a 0 -i 62 -k AGT
h -t 100.506264938 -s 0 -d -1 -p tcp -e 552 -c 2 -a 0 -i 62 -k AGT
+ -t 100.506264938 -s 0 -d -1 -p tcp -e 552 -c 2 -a 0 -i 63 -k AGT 
- -t 100.506264938 -s 0 -d -1 -p tcp -e 552 -c 2 -a 0 -i 63 -k AGT
h -t 100.506264938 -s 0 -d -1 -p tcp -e 552 -c 2 -a 0 -i 63 -k AGT
+ -t 100.506264938 -s 0 -d 2 -p tcp -e 572 -c 2 -a 0 -i 62 -k RTR 
- -t 100.506264938 -s 0 -d 2 -p tcp -e 572 -c 2 -a 0 -i 62 -k RTR
h -t 100.506264938 -s 0 -d 2 -p tcp -e 572 -c 2 -a 0 -i 62 -k RTR
+ -t 100.506264938 -s 0 -d 2 -p tcp -e 572 -c 2 -a 0 -i 63 -k RTR 
- -t 100.506264938 -s 0 -d 2 -p tcp -e 572 -c 2 -a 0 -i 63 -k RTR
h -t 100.506264938 -s 0 -d 2 -p tcp -e 572 -c 2 -a 0 -i 63 -k RTR
+ -t 100.512438938 -s 2 -d 3 -p tcp -e 572 -c 2 -a 0 -i 62 -k RTR 
- -t 100.512438938 -s 2 -d 3 -p tcp -e 572 -c 2 -a 0 -i 62 -k RTR
h -t 100.512438938 -s 2 -d 3 -p tcp -e 572 -c 2 -a 0 -i 62 -k RTR
+ -t 100.519036938 -s 3 -d 4 -p tcp -e 600 -c 2 -a 0 -i 19 -k RTR 
- -t 100.519036938 -s 3 -d 4 -p tcp -e 600 -c 2 -a 0 -i 19 -k RTR
h -t 100.519036938 -s 3 -d 4 -p tcp -e 600 -c 2 -a 0 -i 19 -k RTR
+ -t 100.524972272 -s 0 -d 2 -p tcp -e 600 -c 2 -a 0 -i 21 -k RTR 
- -t 100.524972272 -s 0 -d 2 -p tcp -e 600 -c 2 -a 0 -i 21 -k RTR
h -t 100.524972272 -s 0 -d 2 -p tcp -e 600 -c 2 -a 0 -i 21 -k RTR
+ -t 100.525391605 -s 3 -d 4 -p tcp -e 572 -c 2 -a 0 -i 62 -k RTR 
- -t 100.525391605 -s 3 -d 4 -p tcp -e 572 -c 2 -a 0 -i 62 -k RTR
h -t 100.525391605 -s 3 -d 4 -p tcp -e 572 -c 2 -a 0 -i 62 -k RTR
+ -t 100.531809605 -s 4 -d 1 -p tcp -e 600 -c 2 -a 0 -i 19 -k RTR 
- -t 100.531809605 -s 4 -d 1 -p tcp -e 600 -c 2 -a 0 -i 19 -k RTR
h -t 100.531809605 -s 4 -d 1 -p tcp -e 600 -c 2 -a 0 -i 19 -k RTR
+ -t 100.537944272 -s 4 -d 1 -p tcp -e 572 -c 2 -a 0 -i 62 -k RTR 
- -t 100.537944272 -s 4 -d 1 -p tcp -e 572 -c 2 -a 0 -i 62 -k RTR
h -t 100.537944272 -s 4 -d 1 -p tcp -e 572 -c 2 -a 0 -i 62 -k RTR
r -t 100.544482272 -s 1 -d 1 -p tcp -e 552 -c 2 -a 0 -i 19 -k AGT
+ -t 100.544482272 -s 1 -d -1 -p ack -e 40 -c 2 -a 0 -i 64 -k AGT 
- -t 100.544482272 -s 1 -d -1 -p ack -e 40 -c 2 -a 0 -i 64 -k AGT
h -t 100.544482272 -s 1 -d -1 -p ack -e 40 -c 2 -a 0 -i 64 -k AGT
+ -t 100.544482272 -s 1 -d 4 -p ack -e 60 -c 2 -a 0 -i 64 -k RTR 
- -t 100.544482272 -s 1 -d 4 -p ack -e 60 -c 2 -a 0 -i 64 -k RTR
h -t 100.544482272 -s 1 -d 4 -p ack -e 60 -c 2 -a 0 -i 64 -k RTR
+ -t 100.546440272 -s 4 -d 3 -p ack -e 60 -c 2 -a 0 -i 64 -k RTR 
- -t 100.546440272 -s 4 -d 3 -p ack -e 60 -c 2 -a 0 -i 64 -k RTR
h -t 100.546440272 -s 4 -d 3 -p ack -e 60 -c 2 -a 0 -i 64 -k RTR
r -t 100.552874272 -s 1 -d 1 -p tcp -e 552 -c 2 -a 0 -i 62 -k AGT
+ -t 100.552874272 -s 1 -d -1 -p ack -e 40 -c 2 -a 0 -i 65 -k AGT 